
Predictions were generated on 07-Sep-2020 at 14:35:40 using OpenFAST, compiled as a 64-bit application using double precision at commit v2.1.0-173-g38fc45a8-dirty
 linked with  NWTC Subroutine Library; ElastoDyn; InflowWind; AeroDyn; ServoDyn; HydroDyn; SubDyn

Description from the FAST input file: Simulation: Wind: Seed 5	Velocity: 11.4mps 	Height of referenz velocity: 90m	AnalysisTime: 3630s;	Wave: Significant wave height: 1m	Zero upcrossing periode 9s

Time      	Wind1VelX 	Wind1VelY 	Wind1VelZ 	RootMFlp1 	RootMFlp2 	RootMFlp3 	RootMEdg1 	RootMEdg2 	RootMEdg3 	B1Pitch   	B2Pitch   	B3Pitch   	RtSpeed   	Wave1Elev 	-ReactMXss	-ReactMYss
(s)       	(m/s)     	(m/s)     	(m/s)     	(kN-m)    	(kN-m)    	(kN-m)    	(kN-m)    	(kN-m)    	(kN-m)    	(deg)     	(deg)     	(deg)     	(rpm)     	(m)       	(Nm)      	(Nm)      
    0.0000	 1.257E+01	-1.872E+00	 8.510E-02	 8.161E+03	 1.136E+04	 1.147E+04	 2.486E+02	 2.000E+03	-2.032E+03	-6.004E-33	-5.776E-16	-2.183E-16	 1.200E+01	 0.000E+00	 9.176E+03	 1.412E+07
    0.0125	 1.274E+01	-1.819E+00	 6.967E-02	 9.396E+03	 1.082E+04	 1.080E+04	 2.511E+02	 1.443E+03	-1.314E+03	 6.981E-17	 1.745E-15	-2.834E-15	 1.206E+01	 0.000E+00	 7.667E+03	-5.659E+06
    0.0250	 1.291E+01	-1.767E+00	 5.425E-02	 1.114E+04	 9.942E+03	 9.837E+03	 1.542E+02	 5.335E+02	-1.681E+01	-2.373E-18	-5.836E-16	 1.799E-16	 1.212E+01	 0.000E+00	-6.681E+04	-3.704E+07
    0.0375	 1.308E+01	-1.715E+00	 3.883E-02	 1.160E+04	 9.631E+03	 9.592E+03	 2.060E+02	 3.572E+02	 5.017E+02	-1.437E-16	-2.998E-15	 2.441E-15	 1.215E+01	 0.000E+00	-1.605E+05	-3.401E+07
    0.0500	 1.325E+01	-1.662E+00	 2.340E-02	 1.055E+04	 1.009E+04	 1.016E+04	 5.405E+02	 1.145E+03	-1.552E+02	-1.052E-17	 1.167E-15	-2.036E-15	 1.217E+01	 0.000E+00	-1.036E+05	 1.258E+07
    0.0625	 1.314E+01	-1.789E+00	 1.540E-01	 9.488E+03	 1.061E+04	 1.071E+04	 9.469E+02	 2.069E+03	-9.828E+02	 1.998E-16	-2.517E-15	 1.376E-15	 1.217E+01	 0.000E+00	 2.423E+05	 6.407E+07
    0.0750	 1.304E+01	-1.915E+00	 2.845E-01	 9.895E+03	 1.038E+04	 1.053E+04	 1.114E+03	 2.210E+03	-7.845E+02	-3.483E-16	-4.063E-15	 2.609E-15	 1.215E+01	 0.000E+00	 8.555E+05	 7.865E+07
    0.0875	 1.294E+01	-2.041E+00	 4.150E-01	 1.150E+04	 9.435E+03	 9.772E+03	 1.011E+03	 1.621E+03	 3.914E+02	 4.610E-16	-6.386E-16	-5.310E-16	 1.211E+01	 0.000E+00	 1.574E+06	 5.795E+07
    0.1000	 1.283E+01	-2.168E+00	 5.456E-01	 1.262E+04	 8.657E+03	 9.298E+03	 9.462E+02	 1.245E+03	 1.273E+03	 1.050E-15	 3.787E-15	-4.753E-15	 1.205E+01	 0.000E+00	 2.205E+06	 4.180E+07
    0.1125	 1.283E+01	-2.038E+00	 5.496E-01	 1.218E+04	 8.751E+03	 9.549E+03	 1.218E+03	 1.813E+03	 8.192E+02	-1.104E-15	-3.457E-15	 4.033E-15	 1.199E+01	 0.000E+00	 2.589E+06	 5.959E+07
    0.1250	 1.283E+01	-1.908E+00	 5.535E-01	 1.087E+04	 9.393E+03	 1.018E+04	 1.733E+03	 2.949E+03	-5.087E+02	 1.349E-15	 2.092E-15	-3.027E-15	 1.192E+01	 0.000E+00	 2.571E+06	 9.623E+07
    0.1375	 1.283E+01	-1.779E+00	 5.575E-01	 1.030E+04	 9.644E+03	 1.043E+04	 2.078E+03	 3.658E+03	-1.301E+03	 2.556E-16	-2.871E-15	 1.675E-15	 1.185E+01	 0.000E+00	 1.990E+06	 1.117E+08
    0.1500	 1.282E+01	-1.649E+00	 5.615E-01	 1.110E+04	 9.047E+03	 1.006E+04	 2.022E+03	 3.492E+03	-8.772E+02	-8.944E-16	-9.476E-16	-1.492E-16	 1.179E+01	 0.000E+00	 7.292E+05	 8.932E+07
    0.1625	 1.283E+01	-1.656E+00	 5.800E-01	 1.220E+04	 8.195E+03	 9.570E+03	 1.802E+03	 3.047E+03	-6.172E+01	 8.912E-16	-2.448E-16	-1.547E-15	 1.174E+01	 0.000E+00	-1.206E+06	 5.530E+07
    0.1750	 1.283E+01	-1.662E+00	 5.985E-01	 1.226E+04	 8.002E+03	 9.550E+03	 1.870E+03	 3.183E+03	-1.554E+02	 7.949E-16	-1.228E-15	-2.725E-16	 1.171E+01	 0.000E+00	-3.669E+06	 4.830E+07
    0.1875	 1.283E+01	-1.668E+00	 6.170E-01	 1.107E+04	 8.650E+03	 9.990E+03	 2.316E+03	 3.976E+03	-1.312E+03	-4.501E-15	 1.445E-15	 1.352E-15	 1.169E+01	 0.000E+00	-6.422E+06	 7.531E+07
    0.2000	 1.283E+01	-1.674E+00	 6.355E-01	 9.943E+03	 9.326E+03	 1.037E+04	 2.759E+03	 4.663E+03	-2.377E+03	-3.173E-15	 2.700E-15	-9.226E-17	 1.170E+01	 0.000E+00	-9.187E+06	 1.057E+08
    0.2125	 1.287E+01	-1.627E+00	 6.790E-01	 1.002E+04	 9.222E+03	 1.026E+04	 2.783E+03	 4.608E+03	-2.291E+03	 2.203E-15	-5.838E-16	-2.132E-15	 1.173E+01	 0.000E+00	-1.169E+07	 1.085E+08
    0.2250	 1.290E+01	-1.581E+00	 7.225E-01	 1.094E+04	 8.481E+03	 9.847E+03	 2.443E+03	 4.055E+03	-1.340E+03	 1.633E-15	-2.382E-15	 9.338E-16	 1.177E+01	 0.000E+00	-1.366E+07	 8.783E+07
    0.2375	 1.294E+01	-1.534E+00	 7.660E-01	 1.151E+04	 7.978E+03	 9.640E+03	 2.248E+03	 3.769E+03	-7.861E+02	 3.610E-15	-2.523E-15	-2.679E-15	 1.183E+01	 0.000E+00	-1.492E+07	 7.598E+07
    0.2500	 1.298E+01	-1.487E+00	 8.095E-01	 1.090E+04	 8.336E+03	 9.865E+03	 2.525E+03	 4.117E+03	-1.316E+03	-9.411E-16	 2.233E-15	-1.692E-15	 1.190E+01	 0.000E+00	-1.541E+07	 9.365E+07
    0.2625	 1.292E+01	-1.600E+00	 8.297E-01	 9.738E+03	 9.168E+03	 1.025E+04	 3.044E+03	 4.701E+03	-2.297E+03	 1.124E-15	-1.976E-15	 1.150E-15	 1.197E+01	 0.000E+00	-1.518E+07	 1.248E+08
    0.2750	 1.286E+01	-1.714E+00	 8.500E-01	 9.226E+03	 9.531E+03	 1.039E+04	 3.307E+03	 4.916E+03	-2.629E+03	 1.520E-15	-2.227E-15	-2.855E-16	 1.205E+01	 0.000E+00	-1.437E+07	 1.354E+08
    0.2875	 1.279E+01	-1.828E+00	 8.702E-01	 9.696E+03	 9.069E+03	 1.023E+04	 3.139E+03	 4.684E+03	-2.063E+03	-2.184E-15	-4.043E-16	 1.201E-15	 1.212E+01	 0.000E+00	-1.317E+07	 1.124E+08
    0.3000	 1.273E+01	-1.941E+00	 8.904E-01	 1.037E+04	 8.444E+03	 1.007E+04	 2.913E+03	 4.479E+03	-1.453E+03	-1.234E-15	-2.304E-16	 3.821E-16	 1.218E+01	 0.000E+00	-1.175E+07	 7.747E+07
    0.3125	 1.260E+01	-1.849E+00	 8.350E-01	 1.017E+04	 8.501E+03	 1.016E+04	 3.087E+03	 4.702E+03	-1.675E+03	 1.367E-15	-2.870E-15	 5.180E-16	 1.223E+01	 0.000E+00	-1.031E+07	 6.088E+07
    0.3250	 1.246E+01	-1.757E+00	 7.796E-01	 9.081E+03	 9.315E+03	 1.042E+04	 3.659E+03	 5.249E+03	-2.639E+03	-5.153E-16	 3.039E-16	-8.882E-16	 1.225E+01	 0.000E+00	-9.019E+06	 6.662E+07
    0.3375	 1.232E+01	-1.665E+00	 7.242E-01	 8.141E+03	 1.009E+04	 1.058E+04	 4.172E+03	 5.680E+03	-3.471E+03	-1.744E-15	 3.057E-16	-4.361E-16	 1.227E+01	 0.000E+00	-7.969E+06	 7.021E+07
    0.3500	 1.218E+01	-1.573E+00	 6.688E-01	 8.203E+03	 1.005E+04	 1.055E+04	 4.247E+03	 5.714E+03	-3.531E+03	-2.404E-15	 1.492E-15	-7.084E-17	 1.226E+01	 0.000E+00	-7.120E+06	 4.989E+07
    0.3625	 1.227E+01	-1.475E+00	 5.932E-01	 8.982E+03	 9.423E+03	 1.043E+04	 3.984E+03	 5.494E+03	-3.077E+03	 1.883E-15	-1.427E-15	-1.436E-15	 1.224E+01	 0.000E+00	-6.362E+06	 1.350E+07
    0.3750	 1.236E+01	-1.377E+00	 5.176E-01	 9.442E+03	 9.068E+03	 1.043E+04	 3.831E+03	 5.345E+03	-2.896E+03	-9.336E-16	-1.299E-15	 1.470E-15	 1.221E+01	 0.000E+00	-5.597E+06	-9.999E+06
    0.3875	 1.246E+01	-1.279E+00	 4.420E-01	 9.065E+03	 9.478E+03	 1.055E+04	 4.055E+03	 5.416E+03	-3.409E+03	 1.407E-15	-5.536E-16	-1.613E-15	 1.217E+01	 0.000E+00	-4.774E+06	-3.615E+06
    0.4000	 1.255E+01	-1.181E+00	 3.663E-01	 8.426E+03	 1.021E+04	 1.070E+04	 4.431E+03	 5.532E+03	-4.213E+03	-4.866E-16	-2.991E-15	 1.180E-15	 1.212E+01	 0.000E+00	-3.868E+06	 1.918E+07
    0.4125	 1.245E+01	-1.000E+00	 4.195E-01	 8.453E+03	 1.037E+04	 1.074E+04	 4.493E+03	 5.422E+03	-4.561E+03	 2.103E-15	-3.091E-15	-1.709E-15	 1.208E+01	 0.000E+00	-2.848E+06	 3.132E+07
    0.4250	 1.236E+01	-8.191E-01	 4.726E-01	 9.357E+03	 9.682E+03	 1.068E+04	 4.073E+03	 5.026E+03	-4.208E+03	 5.593E-16	-3.379E-15	 7.426E-16	 1.204E+01	 0.000E+00	-1.703E+06	 2.354E+07
    0.4375	 1.226E+01	-6.379E-01	 5.257E-01	 1.039E+04	 8.806E+03	 1.063E+04	 3.522E+03	 4.554E+03	-3.690E+03	 9.635E-16	-1.643E-15	-6.189E-17	 1.202E+01	 0.000E+00	-4.984E+05	 1.327E+07
    0.4500	 1.217E+01	-4.567E-01	 5.788E-01	 1.073E+04	 8.549E+03	 1.066E+04	 3.329E+03	 4.266E+03	-3.730E+03	-6.747E-16	-1.715E-15	 1.111E-15	 1.200E+01	 0.000E+00	 6.261E+05	 2.203E+07
    0.4625	 1.207E+01	-3.609E-01	 4.499E-01	 1.041E+04	 8.928E+03	 1.073E+04	 3.580E+03	 4.194E+03	-4.420E+03	-5.583E-16	-4.138E-16	-7.049E-16	 1.200E+01	 0.000E+00	 1.531E+06	 4.887E+07
    0.4750	 1.198E+01	-2.651E-01	 3.209E-01	 1.023E+04	 9.188E+03	 1.076E+04	 3.847E+03	 4.130E+03	-5.102E+03	 4.014E-16	 1.244E-16	-2.375E-15	 1.201E+01	 0.000E+00	 2.163E+06	 7.102E+07
    0.4875	 1.188E+01	-1.693E-01	 1.920E-01	 1.073E+04	 8.744E+03	 1.079E+04	 3.700E+03	 3.885E+03	-5.136E+03	 2.585E-15	 5.721E-16	-3.813E-15	 1.202E+01	 0.000E+00	 2.573E+06	 7.016E+07
    0.5000	 1.179E+01	-7.354E-02	 6.306E-02	 1.162E+04	 7.841E+03	 1.082E+04	 3.246E+03	 3.527E+03	-4.680E+03	-1.485E-15	 1.361E-16	 8.647E-16	 1.205E+01	 0.000E+00	 2.854E+06	 5.298E+07
    0.5125	 1.175E+01	-4.059E-02	 7.719E-02	 1.212E+04	 7.292E+03	 1.085E+04	 3.018E+03	 3.278E+03	-4.483E+03	-2.347E-15	-1.314E-15	 2.069E-15	 1.208E+01	 0.000E+00	 3.088E+06	 4.250E+07
    0.5250	 1.171E+01	-7.639E-03	 9.131E-02	 1.190E+04	 7.519E+03	 1.086E+04	 3.335E+03	 3.244E+03	-4.968E+03	-2.949E-15	-1.410E-15	 3.872E-15	 1.211E+01	 0.000E+00	 3.354E+06	 5.141E+07
    0.5375	 1.168E+01	 2.531E-02	 1.054E-01	 1.142E+04	 8.047E+03	 1.082E+04	 3.895E+03	 3.279E+03	-5.687E+03	 3.351E-16	-1.407E-15	-2.130E-16	 1.214E+01	 0.000E+00	 3.764E+06	 6.868E+07
    0.5500	 1.164E+01	 5.826E-02	 1.196E-01	 1.137E+04	 8.099E+03	 1.076E+04	 4.120E+03	 3.187E+03	-5.874E+03	-4.680E-16	 1.538E-15	-1.255E-15	 1.217E+01	 0.000E+00	 4.453E+06	 7.438E+07
    0.5625	 1.157E+01	 9.593E-02	 1.811E-01	 1.188E+04	 7.506E+03	 1.073E+04	 3.847E+03	 2.945E+03	-5.349E+03	 3.205E-16	-1.290E-15	 3.848E-16	 1.219E+01	 0.000E+00	 5.501E+06	 6.413E+07
    0.5750	 1.151E+01	 1.336E-01	 2.426E-01	 1.238E+04	 6.888E+03	 1.071E+04	 3.512E+03	 2.701E+03	-4.708E+03	 9.618E-16	 1.948E-15	-3.296E-15	 1.219E+01	 0.000E+00	 6.854E+06	 5.432E+07
    0.5875	 1.144E+01	 1.713E-01	 3.042E-01	 1.232E+04	 6.891E+03	 1.064E+04	 3.602E+03	 2.567E+03	-4.561E+03	 5.731E-16	-3.681E-16	-6.030E-16	 1.219E+01	 0.000E+00	 8.345E+06	 6.273E+07
    0.6000	 1.138E+01	 2.089E-01	 3.657E-01	 1.179E+04	 7.450E+03	 1.050E+04	 4.059E+03	 2.489E+03	-4.804E+03	 5.799E-16	-1.348E-16	-1.231E-15	 1.217E+01	 0.000E+00	 9.769E+06	 8.771E+07
    0.6125	 1.145E+01	 4.743E-02	 3.249E-01	 1.140E+04	 7.880E+03	 1.036E+04	 4.359E+03	 2.344E+03	-4.800E+03	-9.920E-16	-1.041E-16	-6.946E-16	 1.214E+01	 0.000E+00	 1.096E+07	 1.102E+08
    0.6250	 1.153E+01	-1.141E-01	 2.840E-01	 1.150E+04	 7.687E+03	 1.030E+04	 4.164E+03	 2.107E+03	-4.196E+03	-1.047E-15	 1.119E-15	-1.160E-15	 1.210E+01	 0.000E+00	 1.177E+07	 1.153E+08
    0.6375	 1.160E+01	-2.756E-01	 2.432E-01	 1.185E+04	 7.130E+03	 1.034E+04	 3.738E+03	 1.857E+03	-3.341E+03	-8.284E-16	 1.850E-15	-1.406E-15	 1.206E+01	 0.000E+00	 1.208E+07	 1.081E+08
    0.6500	 1.168E+01	-4.371E-01	 2.023E-01	 1.187E+04	 6.940E+03	 1.033E+04	 3.604E+03	 1.671E+03	-2.842E+03	-2.575E-15	-1.573E-15	 2.265E-15	 1.201E+01	 0.000E+00	 1.178E+07	 1.058E+08
    0.6625	 1.180E+01	-4.406E-01	 2.870E-01	 1.135E+04	 7.436E+03	 1.021E+04	 3.927E+03	 1.528E+03	-2.846E+03	 1.961E-15	-1.535E-16	-2.604E-15	 1.196E+01	 0.000E+00	 1.083E+07	 1.159E+08
    0.6750	 1.192E+01	-4.440E-01	 3.717E-01	 1.065E+04	 8.167E+03	 1.000E+04	 4.352E+03	 1.369E+03	-2.945E+03	 7.163E-16	-2.282E-15	 1.077E-15	 1.192E+01	 0.000E+00	 9.338E+06	 1.274E+08
    0.6875	 1.204E+01	-4.475E-01	 4.564E-01	 1.025E+04	 8.477E+03	 9.871E+03	 4.454E+03	 1.186E+03	-2.705E+03	-1.148E-15	 8.509E-16	-3.908E-16	 1.188E+01	 0.000E+00	 7.507E+06	 1.238E+08
    0.7000	 1.216E+01	-4.510E-01	 5.410E-01	 1.020E+04	 8.277E+03	 9.872E+03	 4.232E+03	 1.015E+03	-2.159E+03	 4.775E-16	-3.129E-15	 1.259E-15	 1.185E+01	 0.000E+00	 5.559E+06	 1.029E+08
    0.7125	 1.228E+01	-4.648E-01	 7.400E-01	 1.014E+04	 8.099E+03	 9.890E+03	 4.065E+03	 8.695E+02	-1.697E+03	-4.190E-16	 1.899E-15	-3.171E-15	 1.183E+01	 0.000E+00	 3.658E+06	 7.932E+07
    0.7250	 1.239E+01	-4.786E-01	 9.390E-01	 9.716E+03	 8.450E+03	 9.754E+03	 4.254E+03	 7.248E+02	-1.587E+03	 5.267E-16	-3.262E-15	 1.532E-15	 1.182E+01	 0.000E+00	 1.916E+06	 6.851E+07
    0.7375	 1.251E+01	-4.924E-01	 1.138E+00	 9.058E+03	 9.246E+03	 9.484E+03	 4.686E+03	 5.604E+02	-1.687E+03	-9.852E-16	-1.451E-15	 1.531E-15	 1.182E+01	 0.000E+00	 4.333E+05	 6.987E+07
    0.7500	 1.263E+01	-5.062E-01	 1.337E+00	 8.566E+03	 9.823E+03	 9.261E+03	 4.979E+03	 3.893E+02	-1.621E+03	-2.539E-16	-1.243E-15	-6.918E-16	 1.184E+01	 0.000E+00	-6.989E+05	 6.967E+07
    0.7625	 1.262E+01	-4.734E-01	 1.379E+00	 8.484E+03	 9.793E+03	 9.239E+03	 4.902E+03	 2.496E+02	-1.189E+03	-1.682E-15	 4.726E-16	 6.121E-16	 1.187E+01	 0.000E+00	-1.452E+06	 5.864E+07
    0.7750	 1.260E+01	-4.406E-01	 1.421E+00	 8.633E+03	 9.428E+03	 9.366E+03	 4.612E+03	 1.424E+02	-5.464E+02	 1.783E-16	-9.954E-16	-1.280E-16	 1.190E+01	 0.000E+00	-1.893E+06	 4.340E+07
    0.7875	 1.259E+01	-4.077E-01	 1.463E+00	 8.638E+03	 9.298E+03	 9.395E+03	 4.473E+03	 3.897E+01	-2.941E+01	 9.618E-17	-9.500E-16	-9.127E-17	 1.194E+01	 0.000E+00	-2.148E+06	 3.852E+07
    0.8000	 1.257E+01	-3.749E-01	 1.504E+00	 8.411E+03	 9.624E+03	 9.258E+03	 4.666E+03	-8.865E+01	 2.074E+02	-1.912E-16	-2.208E-15	 6.922E-16	 1.197E+01	 0.000E+00	-2.320E+06	 4.921E+07
    0.8125	 1.251E+01	-3.894E-01	 1.506E+00	 8.194E+03	 1.000E+04	 9.112E+03	 4.981E+03	-2.199E+02	 3.426E+02	 1.168E-16	-1.733E-16	-3.279E-16	 1.201E+01	 0.000E+00	-2.442E+06	 6.503E+07
    0.8250	 1.244E+01	-4.039E-01	 1.508E+00	 8.260E+03	 9.918E+03	 9.162E+03	 5.058E+03	-3.020E+02	 6.692E+02	-1.585E-15	 9.368E-16	-1.388E-16	 1.204E+01	 0.000E+00	-2.508E+06	 7.168E+07
    0.8375	 1.237E+01	-4.183E-01	 1.510E+00	 8.596E+03	 9.355E+03	 9.427E+03	 4.811E+03	-3.173E+02	 1.242E+03	 3.393E-15	-4.674E-15	 4.671E-17	 1.207E+01	 0.000E+00	-2.509E+06	 6.670E+07
    0.8500	 1.231E+01	-4.328E-01	 1.512E+00	 8.918E+03	 8.805E+03	 9.717E+03	 4.552E+03	-3.180E+02	 1.784E+03	-2.913E-15	-3.490E-15	 6.235E-15	 1.208E+01	 0.000E+00	-2.448E+06	 6.077E+07
    0.8625	 1.234E+01	-3.731E-01	 1.420E+00	 8.990E+03	 8.700E+03	 9.825E+03	 4.642E+03	-3.710E+02	 1.985E+03	 1.378E-15	-2.872E-15	 7.478E-16	 1.209E+01	 0.000E+00	-2.310E+06	 6.408E+07
    0.8750	 1.236E+01	-3.133E-01	 1.329E+00	 8.880E+03	 8.916E+03	 9.801E+03	 5.055E+03	-4.882E+02	 1.866E+03	 1.750E-15	-6.615E-16	-1.655E-15	 1.209E+01	 0.000E+00	-2.043E+06	 7.409E+07
    0.8875	 1.239E+01	-2.536E-01	 1.238E+00	 8.884E+03	 8.960E+03	 9.849E+03	 5.390E+03	-5.973E+02	 1.748E+03	 9.158E-16	-3.535E-16	-1.607E-15	 1.209E+01	 0.000E+00	-1.597E+06	 7.897E+07
    0.9000	 1.242E+01	-1.938E-01	 1.146E+00	 9.132E+03	 8.552E+03	 1.010E+04	 5.338E+03	-6.352E+02	 1.870E+03	 1.431E-16	-3.283E-16	-1.126E-15	 1.208E+01	 0.000E+00	-9.630E+05	 7.203E+07
    0.9125	 1.236E+01	-2.071E-01	 1.074E+00	 9.483E+03	 7.941E+03	 1.043E+04	 5.058E+03	-6.329E+02	 2.102E+03	-2.534E-15	-4.151E-16	 2.732E-15	 1.206E+01	 0.000E+00	-1.974E+05	 5.998E+07
    0.9250	 1.230E+01	-2.204E-01	 1.002E+00	 9.707E+03	 7.614E+03	 1.064E+04	 4.973E+03	-6.919E+02	 2.128E+03	 1.660E-15	-5.699E-16	-1.588E-15	 1.205E+01	 0.000E+00	 6.108E+05	 5.552E+07
    0.9375	 1.224E+01	-2.337E-01	 9.302E-01	 9.725E+03	 7.683E+03	 1.064E+04	 5.227E+03	-8.637E+02	 1.864E+03	-1.375E-15	 1.305E-15	-2.442E-16	 1.204E+01	 0.000E+00	 1.386E+06	 6.332E+07
    0.9500	 1.218E+01	-2.469E-01	 8.582E-01	 9.726E+03	 7.804E+03	 1.060E+04	 5.498E+03	-1.071E+03	 1.561E+03	 1.147E-15	-3.056E-15	 1.695E-15	 1.203E+01	 0.000E+00	 2.086E+06	 7.569E+07
    0.9625	 1.210E+01	-2.630E-02	 7.387E-01	 9.906E+03	 7.579E+03	 1.071E+04	 5.399E+03	-1.192E+03	 1.500E+03	-7.380E-16	 3.750E-16	-2.640E-16	 1.202E+01	 0.000E+00	 2.694E+06	 8.238E+07
    0.9750	 1.202E+01	 1.944E-01	 6.193E-01	 1.020E+04	 7.011E+03	 1.100E+04	 4.944E+03	-1.209E+03	 1.656E+03	 1.838E-16	 8.208E-16	-2.030E-15	 1.202E+01	 0.000E+00	 3.203E+06	 8.260E+07
    0.9875	 1.194E+01	 4.150E-01	 4.999E-01	 1.043E+04	 6.509E+03	 1.126E+04	 4.536E+03	-1.230E+03	 1.749E+03	 2.233E-15	-4.102E-15	 1.012E-15	 1.203E+01	 0.000E+00	 3.624E+06	 8.518E+07
    1.0000	 1.185E+01	 6.357E-01	 3.805E-01	 1.051E+04	 6.421E+03	 1.131E+04	 4.463E+03	-1.346E+03	 1.593E+03	 6.310E-16	 5.277E-16	-1.787E-15	 1.204E+01	 0.000E+00	 4.003E+06	 9.719E+07
    1.0125	 1.193E+01	 6.766E-01	 3.343E-01	 1.048E+04	 6.590E+03	 1.121E+04	 4.576E+03	-1.523E+03	 1.313E+03	-1.378E-15	-2.906E-15	 3.142E-15	 1.205E+01	 0.000E+00	 4.427E+06	 1.148E+08
    1.0250	 1.202E+01	 7.175E-01	 2.881E-01	 1.051E+04	 6.615E+03	 1.118E+04	 4.528E+03	-1.629E+03	 1.130E+03	 2.459E-15	-2.875E-15	-6.844E-16	 1.207E+01	 0.000E+00	 4.991E+06	 1.269E+08
    1.0375	 1.210E+01	 7.584E-01	 2.419E-01	 1.062E+04	 6.331E+03	 1.133E+04	 4.204E+03	-1.600E+03	 1.105E+03	-5.307E-17	-2.438E-15	 1.662E-15	 1.209E+01	 0.000E+00	 5.766E+06	 1.272E+08
    1.0500	 1.218E+01	 7.993E-01	 1.957E-01	 1.070E+04	 6.006E+03	 1.153E+04	 3.857E+03	-1.512E+03	 1.067E+03	 5.686E-15	-2.786E-15	-3.132E-15	 1.211E+01	 0.000E+00	 6.771E+06	 1.205E+08
    1.0625	 1.216E+01	 7.017E-01	 2.189E-01	 1.064E+04	 5.974E+03	 1.154E+04	 3.788E+03	-1.497E+03	 8.531E+02	 4.059E-16	-1.419E-15	-5.295E-16	 1.212E+01	 0.000E+00	 7.984E+06	 1.163E+08
    1.0750	 1.214E+01	 6.041E-01	 2.422E-01	 1.048E+04	 6.301E+03	 1.131E+04	 3.995E+03	-1.577E+03	 4.893E+02	 2.519E-15	-1.438E-16	-2.608E-15	 1.214E+01	 0.000E+00	 9.351E+06	 1.172E+08
    1.0875	 1.212E+01	 5.065E-01	 2.654E-01	 1.031E+04	 6.706E+03	 1.101E+04	 4.206E+03	-1.644E+03	 1.434E+02	 7.678E-16	-9.084E-16	-1.004E-15	 1.215E+01	 0.000E+00	 1.081E+07	 1.171E+08
    1.1000	 1.210E+01	 4.089E-01	 2.886E-01	 1.023E+04	 6.857E+03	 1.087E+04	 4.215E+03	-1.596E+03	-8.202E+01	-3.184E-15	 4.864E-15	-2.311E-15	 1.215E+01	 0.000E+00	 1.227E+07	 1.089E+08
    1.1125	 1.212E+01	 3.644E-01	 2.215E-01	 1.015E+04	 6.778E+03	 1.087E+04	 4.067E+03	-1.452E+03	-2.153E+02	 1.708E-15	-2.270E-15	-7.828E-16	 1.214E+01	 0.000E+00	 1.366E+07	 9.390E+07
    1.1250	 1.215E+01	 3.199E-01	 1.545E-01	 1.005E+04	 6.790E+03	 1.084E+04	 3.975E+03	-1.320E+03	-3.628E+02	-1.657E-15	-1.402E-15	 1.795E-15	 1.213E+01	 0.000E+00	 1.489E+07	 8.124E+07
    1.1375	 1.217E+01	 2.754E-01	 8.746E-02	 9.886E+03	 7.105E+03	 1.059E+04	 4.056E+03	-1.275E+03	-5.723E+02	 3.215E-16	-4.992E-15	 3.803E-15	 1.211E+01	 0.000E+00	 1.590E+07	 7.785E+07
    1.1500	 1.220E+01	 2.310E-01	 2.041E-02	 9.719E+03	 7.537E+03	 1.025E+04	 4.222E+03	-1.282E+03	-7.953E+02	-1.318E-15	-3.021E-15	 3.388E-15	 1.208E+01	 0.000E+00	 1.667E+07	 8.135E+07
    1.1625	 1.225E+01	 8.971E-02	 1.292E-01	 9.629E+03	 7.777E+03	 1.005E+04	 4.275E+03	-1.228E+03	-9.528E+02	 2.025E-15	-1.123E-15	-1.458E-15	 1.205E+01	 0.000E+00	 1.725E+07	 8.362E+07
    1.1750	 1.229E+01	-5.153E-02	 2.379E-01	 9.600E+03	 7.720E+03	 1.011E+04	 4.113E+03	-1.051E+03	-1.006E+03	 1.691E-15	-9.371E-16	-1.313E-15	 1.202E+01	 0.000E+00	 1.766E+07	 8.053E+07
    1.1875	 1.234E+01	-1.928E-01	 3.467E-01	 9.577E+03	 7.565E+03	 1.026E+04	 3.854E+03	-8.126E+02	-1.014E+03	-4.195E-16	-1.289E-15	 1.146E-15	 1.198E+01	 0.000E+00	 1.794E+07	 7.629E+07
    1.2000	 1.239E+01	-3.340E-01	 4.554E-01	 9.516E+03	 7.575E+03	 1.028E+04	 3.720E+03	-6.386E+02	-1.071E+03	-2.667E-15	 3.178E-16	 1.461E-15	 1.194E+01	 0.000E+00	 1.812E+07	 7.764E+07
    1.2125	 1.230E+01	-3.632E-01	 5.024E-01	 9.431E+03	 7.787E+03	 1.014E+04	 3.805E+03	-5.830E+02	-1.215E+03	-1.441E-15	 6.200E-16	 6.503E-16	 1.191E+01	 0.000E+00	 1.822E+07	 8.519E+07
    1.2250	 1.221E+01	-3.924E-01	 5.494E-01	 9.384E+03	 7.987E+03	 1.003E+04	 3.975E+03	-5.597E+02	-1.391E+03	 1.472E-15	 1.113E-15	-3.155E-15	 1.189E+01	 0.000E+00	 1.826E+07	 9.214E+07
    1.2375	 1.212E+01	-4.216E-01	 5.965E-01	 9.362E+03	 7.956E+03	 1.012E+04	 4.022E+03	-4.428E+02	-1.513E+03	 1.970E-15	 9.117E-17	-3.679E-15	 1.187E+01	 0.000E+00	 1.822E+07	 9.182E+07
    1.2500	 1.204E+01	-4.507E-01	 6.435E-01	 9.284E+03	 7.732E+03	 1.035E+04	 3.913E+03	-2.212E+02	-1.553E+03	 3.511E-15	-1.447E-15	-2.637E-15	 1.185E+01	 0.000E+00	 1.808E+07	 8.497E+07
    1.2625	 1.199E+01	-4.769E-01	 5.534E-01	 9.173E+03	 7.579E+03	 1.054E+04	 3.862E+03	-2.260E+01	-1.591E+03	-2.392E-15	-9.964E-16	 2.093E-15	 1.184E+01	 0.000E+00	 1.783E+07	 7.849E+07
    1.2750	 1.195E+01	-5.030E-01	 4.633E-01	 9.070E+03	 7.643E+03	 1.054E+04	 4.065E+03	 3.277E+01	-1.698E+03	 3.399E-15	-5.204E-15	 5.119E-16	 1.184E+01	 0.000E+00	 1.745E+07	 7.745E+07
    1.2875	 1.191E+01	-5.291E-01	 3.732E-01	 8.999E+03	 7.799E+03	 1.044E+04	 4.445E+03	-1.216E+01	-1.841E+03	 2.410E-15	-3.641E-15	 3.382E-16	 1.185E+01	 0.000E+00	 1.695E+07	 7.981E+07
    1.3000	 1.187E+01	-5.553E-01	 2.831E-01	 8.938E+03	 7.803E+03	 1.046E+04	 4.732E+03	 8.716E+00	-1.915E+03	-1.179E-15	 1.812E-15	-1.126E-15	 1.186E+01	 0.000E+00	 1.635E+07	 7.984E+07
    1.3125	 1.180E+01	-6.108E-01	 2.798E-01	 8.890E+03	 7.591E+03	 1.067E+04	 4.779E+03	 1.876E+02	-1.873E+03	-3.476E-16	-1.012E-15	 1.487E-16	 1.187E+01	 0.000E+00	 1.572E+07	 7.564E+07
    1.3250	 1.173E+01	-6.664E-01	 2.766E-01	 8.870E+03	 7.312E+03	 1.092E+04	 4.744E+03	 4.258E+02	-1.779E+03	 7.083E-16	-1.130E-15	-1.184E-15	 1.188E+01	 0.000E+00	 1.512E+07	 7.195E+07
    1.3375	 1.165E+01	-7.219E-01	 2.733E-01	 8.913E+03	 7.175E+03	 1.105E+04	 4.865E+03	 5.531E+02	-1.709E+03	-4.327E-16	-8.191E-16	 1.218E-16	 1.189E+01	 0.000E+00	 1.459E+07	 7.489E+07
